<?xml version="1.0"?>
<VTKFile type="UnstructuredGrid"  version="0.1"  >
<UnstructuredGrid>
<Piece  NumberOfPoints="14641" NumberOfCells="28800">
<Points>
<DataArray  type="Float64"  NumberOfComponents="3"  format="ascii">-0.15 -0.15 0  -0.1308333333333333 -0.15 0  -0.1116666666666667 -0.15 0  -0.0925 -0.15 0  -0.07333333333333333 -0.15 0  -0.05416666666666665 -0.15 0  -0.035 -0.15 0  -0.01583333333333334 -0.15 0  0.003333333333333327 -0.15 0  0.02249999999999999 -0.15 0  0.04166666666666669 -0.15 0  0.06083333333333332 -0.15 0  0.07999999999999999 -0.15 0  0.09916666666666665 -0.15 0  0.1183333333333333 -0.15 0  0.1375 -0.15 0  0.1566666666666666 -0.15 0  0.1758333333333333 -0.15 0  0.195 -0.15 0  0.2141666666666666 -0.15 0  0.2333333333333334 -0.15 0  0.2524999999999999 -0.15 0  0.2716666666666666 -0.15 0  0.2908333333333333 -0.15 0  0.3099999999999999 -0.15 0  0.3291666666666666 -0.15 0  0.3483333333333333 -0.15 0  0.3674999999999999 -0.15 0  0.3866666666666666 -0.15 0  0.4058333333333333 -0.15 0  0.4249999999999999 -0.15 0  0.4441666666666666 -0.15 0  0.4633333333333333 -0.15 0  0.4824999999999999 -0.15 0  0.5016666666666666 -0.15 0  0.5208333333333333 -0.15 0  0.5399999999999999 -0.15 0  0.5591666666666666 -0.15 0  0.5783333333333333 -0.15 0  0.5974999999999999 -0.15 0  0.6166666666666667 -0.15 0  0.6358333333333333 -0.15 0  0.6549999999999999 -0.15 0  0.6741666666666666 -0.15 0  0.6933333333333332 -0.15 0  0.7124999999999999 -0.15 0  0.7316666666666666 -0.15 0  0.7508333333333332 -0.15 0  0.7699999999999999 -0.15 0  0.7891666666666666 -0.15 0  0.8083333333333332 -0.15 0  0.8274999999999999 -0.15 0  0.8466666666666666 -0.15 0  0.8658333333333333 -0.15 0  0.8849999999999999 -0.15 0  0.9041666666666665 -0.15 0  0.9233333333333332 -0.15 0  0.9425 -0.15 0  0.9616666666666666 -0.15 0  0.9808333333333331 -0.15 0  0.9999999999999999 -0.15 0  1.019166666666667 -0.15 0  1.038333333333333 -0.15 0  1.0575 -0.15 0  1.076666666666667 -0.15 0  1.095833333333333 -0.15 0  1.115 -0.15 0  1.134166666666667 -0.15 0  1.153333333333333 -0.15 0  1.1725 -0.15 0  1.191666666666667 -0.15 0  1.210833333333333 -0.15 0  1.23 -0.15 0  1.249166666666667 -0.15 0  1.268333333333333 -0.15 0  1.2875 -0.15 0  1.306666666666667 -0.15 0  1.325833333333333 -0.15 0  1.345 -0.15 0  1.364166666666667 -0.15 0  1.383333333333334 -0.15 0  1.4025 -0.15 0  1.421666666666667 -0.15 0  1.440833333333333 -0.15 0  1.46 -0.15 0  1.479166666666667 -0.15 0  1.498333333333333 -0.15 0  1.5175 -0.15 0  1.536666666666667 -0.15 0  1.555833333333333 -0.15 0  1.575 -0.15 0  1.594166666666667 -0.15 0  1.613333333333333 -0.15 0  1.6325 -0.15 0  1.651666666666667 -0.15 0  1.670833333333333 -0.15 0  1.69 -0.15 0  1.709166666666667 -0.15 0  1.728333333333333 -0.15 0  1.7475 -0.15 0  1.766666666666667 -0.15 0  1.785833333333333 -0.15 0  1.805 -0.15 0  1.824166666666666 -0.15 0  1.843333333333333 -0.15 0  1.8625 -0.15 0  1.881666666666667 -0.15 0  1.900833333333333 -0.15 0  1.92 -0.15 0  1.939166666666666 -0.15 0  1.958333333333333 -0.15 0  1.9775 -0.15 0  1.996666666666667 -0.15 0  2.015833333333333 -0.15 0  2.035 -0.15 0  2.054166666666667 -0.15 0  2.073333333333333 -0.15 0  2.0925 -0.15 0  2.111666666666666 -0.15 0  2.130833333333333 -0.15 0  2.15 -0.15 0  -0.15 -0.1308333333333333 0  -0.1308333333333333 -0.1308333333333333 0  -0.1116666666666667 -0.1308333333333333 0  -0.0925 -0.1308333333333333 0  -0.07333333333333333 -0.1308333333333333 0  -0.05416666666666665 -0.1308333333333333 0  -0.035 -0.1308333333333333 0  -0.01583333333333334 -0.1308333333333333 0  0.003333333333333327 -0.1308333333333333 0  0.02249999999999999 -0.1308333333333333 0  0.04166666666666669 -0.1308333333333333 0  0.06083333333333332 -0.1308333333333333 0  0.07999999999999999 -0.1308333333333333 0  0.09916666666666665 -0.1308333333333333 0  0.1183333333333333 -0.1308333333333333 0  0.1375 -0.1308333333333333 0  0.1566666666666666 -0.1308333333333333 0  0.1758333333333333 -0.1308333333333333 0  0.195 -0.1308333333333333 0  0.2141666666666666 -0.1308333333333333 0  0.2333333333333334 -0.1308333333333333 0  0.2524999999999999 -0.1308333333333333 0  0.2716666666666666 -0.1308333333333333 0  0.2908333333333333 -0.1308333333333333 0  0.3099999999999999 -0.1308333333333333 0  0.3291666666666666 -0.1308333333333333 0  0.3483333333333333 -0.1308333333333333 0  0.3674999999999999 -0.1308333333333333 0  0.3866666666666666 -0.1308333333333333 0  0.4058333333333333 -0.1308333333333333 0  0.4249999999999999 -0.1308333333333333 0  0.4441666666666666 -0.1308333333333333 0  0.4633333333333333 -0.1308333333333333 0  0.4824999999999999 -0.1308333333333333 0  0.5016666666666666 -0.1308333333333333 0  0.5208333333333333 -0.1308333333333333 0  0.5399999999999999 -0.1308333333333333 0  0.5591666666666666 -0.1308333333333333 0  0.5783333333333333 -0.1308333333333333 0  0.5974999999999999 -0.1308333333333333 0  0.6166666666666667 -0.1308333333333333 0  0.6358333333333333 -0.1308333333333333 0  0.6549999999999999 -0.1308333333333333 0  0.6741666666666666 -0.1308333333333333 0  0.6933333333333332 -0.1308333333333333 0  0.7124999999999999 -0.1308333333333333 0  0.7316666666666666 -0.1308333333333333 0  0.7508333333333332 -0.1308333333333333 0  0.7699999999999999 -0.1308333333333333 0  0.7891666666666666 -0.1308333333333333 0  0.8083333333333332 -0.1308333333333333 0  0.8274999999999999 -0.1308333333333333 0  0.8466666666666666 -0.1308333333333333 0  0.8658333333333333 -0.1308333333333333 0  0.8849999999999999 -0.1308333333333333 0  0.9041666666666665 -0.1308333333333333 0  0.9233333333333332 -0.1308333333333333 0  0.9425 -0.1308333333333333 0  0.9616666666666666 -0.1308333333333333 0  0.9808333333333331 -0.1308333333333333 0  0.9999999999999999 -0.1308333333333333 0  1.019166666666667 -0.1308333333333333 0  1.038333333333333 -0.1308333333333333 0  1.0575 -0.1308333333333333 0  1.076666666666667 -0.1308333333333333 0  1.095833333333333 -0.1308333333333333 0  1.115 -0.1308333333333333 0  1.134166666666667 -0.1308333333333333 0  1.153333333333333 -0.1308333333333333 0  1.1725 -0.1308333333333333 0  1.191666666666667 -0.1308333333333333 0  1.210833333333333 -0.1308333333333333 0  1.23 -0.1308333333333333 0  1.249166666666667 -0.1308333333333333 0  1.268333333333333 -0.1308333333333333 0  1.2875 -0.1308333333333333 0  1.306666666666667 -0.1308333333333333 0  1.325833333333333 -0.1308333333333333 0  1.345 -0.1308333333333333 0  1.364166666666667 -0.1308333333333333 0  1.383333333333334 -0.1308333333333333 0  1.4025 -0.1308333333333333 0  1.421666666666667 -0.1308333333333333 0  1.440833333333333 -0.1308333333333333 0  1.46 -0.1308333333333333 0  1.479166666666667 -0.1308333333333333 0  1.498333333333333 -0.1308333333333333 0  1.5175 -0.1308333333333333 0  1.536666666666667 -0.1308333333333333 0  1.555833333333333 -0.1308333333333333 0  1.575 -0.1308333333333333 0  1.594166666666667 -0.1308333333333333 0  1.613333333333333 -0.1308333333333333 0  1.6325 -0.1308333333333333 0  1.651666666666667 -0.1308333333333333 0  1.670833333333333 -0.1308333333333333 0  1.69 -0.1308333333333333 0  1.709166666666667 -0.1308333333333333 0  1.728333333333333 -0.1308333333333333 0  1.7475 -0.1308333333333333 0  1.766666666666667 -0.1308333333333333 0  1.785833333333333 -0.1308333333333333 0  1.805 -0.1308333333333333 0  1.824166666666666 -0.1308333333333333 0  1.843333333333333 -0.1308333333333333 0  1.8625 -0.1308333333333333 0  1.881666666666667 -0.1308333333333333 0  1.900833333333333 -0.1308333333333333 0  1.92 -0.1308333333333333 0  1.939166666666666 -0.1308333333333333 0  1.958333333333333 -0.1308333333333333 0  1.9775 -0.1308333333333333 0  1.996666666666667 -0.1308333333333333 0  2.015833333333333 -0.1308333333333333 0  2.035 -0.1308333333333333 0  2.054166666666667 -0.1308333333333333 0  2.073333333333333 -0.1308333333333333 0  2.0925 -0.1308333333333333 0  2.111666666666666 -0.1308333333333333 0  2.130833333333333 -0.1308333333333333 0  2.15 -0.1308333333333333 0  -0.15 -0.1116666666666667 0  -0.1308333333333333 -0.1116666666666667 0  -0.1116666666666667 -0.1116666666666667 0  -0.0925 -0.1116666666666667 0  -0.07333333333333333 -0.1116666666666667 0  -0.05416666666666665 -0.1116666666666667 0  -0.035 -0.1116666666666667 0  -0.01583333333333334 -0.1116666666666667 0  0.003333333333333327 -0.1116666666666667 0  0.02249999999999999 -0.1116666666666667 0  0.04166666666666669 -0.1116666666666667 0  0.06083333333333332 -0.1116666666666667 0  0.07999999999999999 -0.1116666666666667 0  0.09916666666666665 -0.1116666666666667 0  0.1183333333333333 -0.1116666666666667 0  0.1375 -0.1116666666666667 0  0.1566666666666666 -0.1116666666666667 0  0.1758333333333333 -0.1116666666666667 0  0.195 -0.1116666666666667 0  0.2141666666666666 -0.1116666666666667 0  0.2333333333333334 -0.1116666666666667 0  0.2524999999999999 -0.1116666666666667 0  0.2716666666666666 -0.1116666666666667 0  0.2908333333333333 -0.1116666666666667 0  0.3099999999999999 -0.1116666666666667 0  0.3291666666666666 -0.1116666666666667 0  0.3483333333333333 -0.1116666666666667 0  0.3674999999999999 -0.1116666666666667 0  0.3866666666666666 -0.1116666666666667 0  0.4058333333333333 -0.1116666666666667 0  0.4249999999999999 -0.1116666666666667 0  0.4441666666666666 -0.1116666666666667 0  0.4633333333333333 -0.1116666666666667 0  0.4824999999999999 -0.1116666666666667 0  0.5016666666666666 -0.1116666666666667 0  0.5208333333333333 -0.1116666666666667 0  0.5399999999999999 -0.1116666666666667 0  0.5591666666666666 -0.1116666666666667 0  0.5783333333333333 -0.1116666666666667 0  0.5974999999999999 -0.1116666666666667 0  0.6166666666666667 -0.1116666666666667 0  0.6358333333333333 -0.1116666666666667 0  0.6549999999999999 -0.1116666666666667 0  0.6741666666666666 -0.1116666666666667 0  0.6933333333333332 -0.1116666666666667 0  0.7124999999999999 -0.1116666666666667 0  0.7316666666666666 -0.1116666666666667 0  0.7508333333333332 -0.1116666666666667 0  0.7699999999999999 -0.1116666666666667 0  0.
[...]
<PointData  Scalars="f_28256"> 
<DataArray  type="Float64"  Name="f_28256"  format="ascii">0.0000000000000000e+00  0.0000000000000000e+00  0.0000000000000000e+00  0.0000000000000000e+00  0.0000000000000000e+00  0.0000000000000000e+00  0.0000000000000000e+00  0.0000000000000000e+00  0.0000000000000000e+00  0.0000000000000000e+00  0.0000000000000000e+00  0.0000000000000000e+00  0.0000000000000000e+00  0.0000000000000000e+00  0.0000000000000000e+00  0.0000000000000000e+00  0.0000000000000000e+00  0.0000000000000000e+00  0.0000000000000000e+00  0.0000000000000000e+00  0.0000000000000000e+00  0.0000000000000000e+00  0.0000000000000000e+00  0.0000000000000000e+00  0.0000000000000000e+00  0.0000000000000000e+00  0.0000000000000000e+00  0.0000000000000000e+00  0.0000000000000000e+00  0.0000000000000000e+00  0.0000000000000000e+00  0.0000000000000000e+00  0.0000000000000000e+00  0.0000000000000000e+00  0.0000000000000000e+00  0.0000000000000000e+00  0.0000000000000000e+00  0.0000000000000000e+00  0.0000000000000000e+00  0.0000000000000000e+00  0.0000000000000000e+00  0.0000000000000000e+00  0.0000000000000000e+00  0.0000000000000000e+00  0.0000000000000000e+00  0.0000000000000000e+00  0.0000000000000000e+00  0.0000000000000000e+00  0.0000000000000000e+00  0.0000000000000000e+00  0.0000000000000000e+00  0.0000000000000000e+00  0.0000000000000000e+00  0.0000000000000000e+00  0.0000000000000000e+00  0.0000000000000000e+00  0.0000000000000000e+00  0.0000000000000000e+00  0.0000000000000000e+00  0.0000000000000000e+00  0.0000000000000000e+00  0.0000000000000000e+00  0.0000000000000000e+00  0.0000000000000000e+00  0.0000000000000000e+00  0.0000000000000000e+00  0.0000000000000000e+00  0.0000000000000000e+00  0.0000000000000000e+00  0.0000000000000000e+00  0.0000000000000000e+00  0.0000000000000000e+00  0.0000000000000000e+00  0.0000000000000000e+00  0.0000000000000000e+00  0.0000000000000000e+00  0.0000000000000000e+00  0.0000000000000000e+00  0.0000000000000000e+00  0.0000000000000000e+00  0.0000000000000000e+00  0.0000000000000000e+00  0.0000000000000000e+00  0.0000000000000000e+00  0.0000000000000000e+00  0.0000000000000000e+00  0.0000000000000000e+00  0.0000000000000000e+00  0.0000000000000000e+00  0.0000000000000000e+00  0.0000000000000000e+00  0.0000000000000000e+00  0.0000000000000000e+00  0.0000000000000000e+00  0.0000000000000000e+00  0.0000000000000000e+00  0.0000000000000000e+00  0.0000000000000000e+00  0.0000000000000000e+00  0.0000000000000000e+00  0.0000000000000000e+00  0.0000000000000000e+00  0.0000000000000000e+00  0.0000000000000000e+00  0.0000000000000000e+00  0.0000000000000000e+00  0.0000000000000000e+00  0.0000000000000000e+00  0.0000000000000000e+00  0.0000000000000000e+00  0.0000000000000000e+00  0.0000000000000000e+00  0.0000000000000000e+00  0.0000000000000000e+00  0.0000000000000000e+00  0.0000000000000000e+00  0.0000000000000000e+00  0.0000000000000000e+00  0.0000000000000000e+00  0.0000000000000000e+00  0.0000000000000000e+00  0.0000000000000000e+00  6.7803277175153378e-08  1.2926014615977750e-07  1.9551578431014286e-07  2.6728664738447595e-07  3.4710368172468898e-07  4.3861752325214938e-07  5.4523997069189275e-07  6.6911731558652923e-07  8.1154596214460298e-07  9.7362354663659921e-07  1.1541684098949288e-06  1.3493541720627217e-06  1.5526962993797009e-06  1.7555022956900391e-06  1.9477442435316822e-06  2.1190833092123042e-06  2.2597698189099763e-06  2.3612660166208998e-06  2.4165709320312101e-06  2.4203013016199653e-06  2.3686035596741632e-06  2.2589665883911105e-06  2.0899921793276379e-06  1.8611675668839337e-06  1.5726732675232579e-06  1.2252491293169387e-06  8.2013129939511654e-07  3.5906264396096263e-07  -1.5563059628369366e-07  -7.2091178354935891e-07  -1.3328791978718262e-06  -1.9866108966817233e-06  -2.6760382882335391e-06  -3.3938769879789273e-06  -4.1316400155673024e-06  -4.8797507229303717e-06  -5.6277601460483416e-06  -6.3646591311252070e-06  -7.0792663920115808e-06  -7.7606706220463391e-06  -8.3987035503304565e-06  -8.9844209889652010e-06  -9.5105671536387185e-06  -9.9719867115228821e-06  -1.0365938515475406e-05  -1.0692270864402351e-05  -1.0953436615887704e-05  -1.1154347145259399e-05  -1.1302082755650219e-05  -1.1405486876391266e-05  -1.1474671199351943e-05  -1.1520458368796147e-05  -1.1553793143241203e-05  -1.1585158182105061e-05  -1.1624032179913100e-05  -1.1678424942916203e-05  -1.1754517249610544e-05  -1.1856424356199024e-05  -1.1986091938332203e-05  -1.2143322998471560e-05  -1.2325924631743593e-05  -1.2529955354159402e-05  -1.2750047744507702e-05  -1.2979778100005194e-05  -1.3212054902763417e-05  -1.3439500228824486e-05  -1.3654800227870049e-05  -1.3851000465606427e-05  -1.4021723108055147e-05  -1.4161293470700021e-05  -1.4264781625277180e-05  -1.4327979376771854e-05  -1.4347341428422259e-05  -1.4319922713220239e-05  -1.4243332364762633e-05  -1.4115703049756756e-05  -1.3935666803217847e-05  -1.3702337924203634e-05  -1.3415311269603503e-05  -1.3074686924666385e-05  -1.2681131422879794e-05  -1.2235974646393664e-05  -1.1741325438522288e-05  -1.1200181317973874e-05  -1.0616510269411375e-05  -9.9952888624780979e-06  -9.3424867779551750e-06  -8.6649927696033098e-06  -7.9704818065336498e-06  -7.2672278949444708e-06  -6.5638716551815024e-06  -5.8691556982508984e-06  -5.1916437710410981e-06  -4.5394411959655267e-06  -3.9199341161727338e-06  -3.3395633193098817e-06  -2.8036447819322291e-06  -2.3162435755157339e-06  -1.8801013189776466e-06  -1.4966120677480081e-06  -1.1658386053286029e-06  -8.8655828479352353e-07  -6.5632311114550390e-07  -4.7151842420373475e-07  -3.2741881371901200e-07  -2.1827541177716281e-07  -1.3751976767409424e-07  -7.8203148971135645e-08  -3.3742325220556652e-08  1.1316253391584290e-09  2.9555611382700989e-08  5.2281610613525987e-08  6.8284671784551195e-08  7.5934588224514526e-08  7.3476264263843041e-08  6.1324511275210641e-08  4.3543458229929941e-08  2.5872664166592807e-08  1.1753333715041540e-08  0.0000000000000000e+00  0.0000000000000000e+00  1.3471524021586550e-07  2.5974608020410085e-07  3.9267316290485614e-07  5.3517705433327831e-07  6.9151333074208052e-07  8.6849699671192085e-07  1.0734842470551712e-06  1.3123698138407674e-06  1.5895253585555277e-06  1.9077518956608732e-06  2.2647877976752318e-06  2.6523707855032325e-06  3.0567491083446337e-06  3.4602588959238502e-06  3.8433535369210784e-06  4.1864957760027592e-06  4.4715940962891451e-06  4.6829144762930108e-06  4.8075245772973846e-06  4.8353713579438120e-06  4.7591018611727064e-06  4.5737307609251841e-06  4.2762455165037002e-06  3.8652244297644661e-06  3.3405258110949598e-06  2.7030881036283161e-06  1.9548615011178305e-06  1.0988721158471419e-06  1.3940134663030340e-07  -9.1775282026434859e-07  -2.0649779232503700e-06  -3.2925650470089912e-06  -4.5884968803257417e-06  -5.9383561659250700e-06  -7.3253965643737584e-06  -8.7308058883891800e-06  -1.0134173725544556e-05  -1.1514146013491950e-05  -1.2849216081891638e-05  -1.4118595068248865e-05  -1.5303125814643577e-05  -1.6386207061834650e-05  -1.7354664981194130e-05  -1.8199493643259915e-05  -1.8916393712947111e-05  -1.9506041000174612e-05  -1.9974038691076827e-05  -2.0330566314667653e-05  -2.0589777636598248e-05  -2.0768994306550742e-05  -2.0887735322290574e-05  -2.0966634494634010e-05  -2.1026313286319878e-05  -2.1086282910293843e-05  -2.1163947057427405e-05  -2.1273767400814858e-05  -2.1426639891727677e-05  -2.1629512347395628e-05  -2.1885254550708221e-05  -2.2192772755875203e-05  -2.2547342772535920e-05  -2.2941121078430515e-05  -2.3363782845861777e-05  -2.3803230323376042e-05  -2.4246315319234307e-05  -2.4679525763695068e-05  -2.5089597353944375e-05  -2.5464021076729533e-05  -2.5791415418476441e-05  -2.6061725717290525e-05  -2.6266239758805005e-05  -2.6397473347628893e-05  -2.6449018353567984e-05  -2.6415416391849993e-05  -2.6292072400135822e-05  -2.6075205774972396e-05  -2.5761829728527174e-05  -2.5349744080304936e-05  -2.4837552969826368e-05  -2.4224751852135441e-05  -2.3511907359813467e-05  -2.2700902137465950e-05  -2.1795194281558059e-05  -2.0800046393964853e-05  -1.9722689427213169e-05  -1.8572394820057166e-05  -1.7360436511051524e-05  -1.6099933512938509e-05  -1.4805573711248232e-05  -1.3493229639872282e-05  -1.2179486282275875e-05  -1.0881108616686315e-05  -9.6144819057326987e-06  -8.3950600548663754e-06  -7.2368565368219659e-06  -6.1520085197508132e-06  -5.1504381669875147e-06  -4.2396257660688313e-06  -3.4244973461152624e-06  -2.7074157722061150e-06  -2.0882542956311047e-06  -1.5645307783270092e-06  -1.1315830953731001e-06  -7.8276608966115269e-07  -5.0966220213649795e-07  -3.0232564407411290e-07  -1.4961974322588654e-07  -3.9777647964302935e-08  3.8625030012887103e-08  9.5220755471607432e-08  1.3629829432661763e-07  1.6405260819380863e-07  1.7757131651616862e-07  1.7522124554099509e-07  1.5572768238388334e-07  1.2207720119568028e-07  8.2916721954677105e-08  4.8091554075217083e-08  2.2039752105096650e-08  0.0000000000000000e+00  0.0000000000000000e+00  2.0879893589274522e-07  4.0394258196246860e-07  6.0857993357435232e-07  8.2389998261897176e-07  1.0549295016188033e-06  1.3113245310564289e-06  1.6056788203198578e-06  1.9506980322775315e-06  2.3573103613735712e-06  2.8323190030957820e-06  3.3728008813694400e-06  3.9651115279250188e-06  4.5871268205604639e-06  5.2118690003412173e-06  5.8108774470985224e-06  6.3566685585143372e-06  6.8243186475156639e-06  7.1923616929289930e-06  7.4431599953797028e-06  7.5628766135755011e-06  7.5411688628232159e-06  7.3707176517411227e-06  7.0467002124291943e-06  6.5663008353688887e-06  5.9283352799544768e-06  5.1330406576102146e-06  4.1820555247596481e-06  3.0785869201705264e-06  1.8277346876153242e-06  4.3692101424858437e-07  -1.0836434582168478e-06  -2.7205346860622411e-06  -4.4568096250857163e-06  -6.2718902063918504e-06  -8.1416921649916251e-06  -1.0039035119973658e-05  -1.1934352153365551e-05  -1.3796689093496674e-05  -1.5594912337948573e-05  -1.7298995299136087e-05  -1.8881356545135688e-05  -2.0318254572800463e-05  -2.1591075853461974e-05  -2.2687354305390888e-05  -2.3601502073550656e-05  -2.4335162660547958e-05  -2.4897081392331479e-05  -2.5302557055232816e-05  -2.5572565632891147e-05  -2.5732588150711548e-05  -2.5811189727787728e-05  -2.5838438538660957e-05  -2.5844273092451744e-05  -2.5856927877567208e-05  -2.5901518953146252e-05  -2.5998875461994437e-05  -2.6164681950595822e-05  -2.6408970986650677e-05  -2.6735977528004273e-05  -2.7144338803103095e-05  -2.7627598780709831e-05  -2.8174955997746676e-05  -2.8772178975927376e-05  -2.9402606294532697e-05  -3.0048149140887426e-05  -3.0690222995376924e-05  -3.1310553887977371e-05  -3.1891834215804166e-05  -3.2418219684481124e-05  -3.2875608861727379e-05  -3.3251607801022041e-05  -3.3535264813379954e-05  -3.3716841567450818e-05  -3.3787691983344825e-05  -3.3740146410228192e-05  -3.3567453007097965e-05  -3.3263832491284258e-05  -3.2824520467856208e-05  -3.2245808963593006e-05  -3.1525248307033410e-05  -3.0662013481356743e-05  -2.9657335407699428e-05  -2.8514918707866084e-05  -2.7241293655521139e-05  -2.5846059371709019e-05  -2.4341982012305836e-05  -2.2744921797457678e-05  -2.1073576380398446e-05  -1.9349043615330464e-05  -1.7594222408264350e-05  -1.5833084367804574e-05  -1.4089860089781138e-05  -1.2388191112595778e-05  -1.0750301208162423e-05  -9.1962385822587225e-06  -7.7432341385722205e-06  -6.4052110318521321e-06  -5.1924686431389055e-06  -4.1115504374119979e-06  -3.1652863988517628e-06  -2.3529733846891538e-06  -1.6706405634163656e-06  -1.1113721017416904e-06  -6.6569371753795286e-07  -3.2202630685370278e-07  -6.7183438868130540e-08  1.1311754162568984e-07  2.3369626657538224e-07  3.0908055038002620e-07  3.5208220823282964e-07  3.7180433823883306e-07  3.7220942832166109e-07  3.5326743324857981e-07  3.1448773744090537e-07  2.5681651454758356e-07  1.8735871824020559e-07  1.1941027143201763e-07  6.5453911127678682e-08  2.8821665660964969e-08  0.0000000000000000e+00  0.0000000000000000e+00  2.8663342610431651e-07  5.5528029692960341e-07  8.3225357519033222e-07  1.1170581135436948e-06  1.4145231981305462e-06  1.7368825814875586e-06  2.1034871001657199e-06  2.5381437849886745e-06  3.0644808997102209e-06  3.6976404626315410e-06  4.4341587443268498e-06  5.2521090343312301e-06  6.1179654212210116e-06  6.9937036038039801e-06  7.8414487046545765e-06  8.6260273177579886e-06  9.3163480165308057e-06  9.8860637799593971e-06  1.0313712766753027e-05  1.0582469704748003e-05  1.0679627385068399e-05  1.0595930141726176e-05  1.0324880840082063e-05  9.8621328041577531e-06  9.2050574637848283e-06  8.3525491063880522e-06  7.3050929999056903e-06  6.0650859990508672e-06  4.6373637441792784e-06  3.0298594693177189e-06  1.2542982697125671e-06  -6.7318052952905324e-07  -2.7315792310871902e-06  -4.8948696713551111e-06  -7.1321645342322865e-06  -9.4082723941083853e-06  -1.1684646475964184e-05  -1.3920730809603009e-05  -1.6075635465511718e-05  -1.8109861100645963e-05  -1.9987083923564607e-05  -2.1676142766307593e-05  -2.3152828310849406e-05  -2.4401147801519191e-05  -2.5414234634003366e-05  -2.6194778097893656e-05  -2.6754793345928097e-05  -2.7114915972009753e-05  -2.7303276665524260e-05  -2.7353936670530032e-05  -2.7304978745989733e-05  -2.7196397500628176e-05  -2.7067938051716978e-05  -2.6957028340060167e-05  -2.6896937427759639e-05  -2.6915269612322813e-05  -2.7032876023267288e-05  -2.7263231963273350e-05  -2.7612289764040246e-05  -2.8078779932864058e-05  -2.8654902125209533e-05  -2.9327321488534208e-05  -3.0078367273861361e-05  -3.0887322874453550e-05  -3.1731699047599928e-05  -3.2588393204233185e-05  -3.3434659348381332e-05  -3.4248856601460819e-05  -3.5011024773117403e-05  -3.5703283898776124e-05  -3.6309720215930732e-05  -3.6815805547938019e-05  -3.7208099766686659e-05  -3.7474255154492933e-05  -3.7602815357987416e-05  -3.7583091513809601e-05  -3.7405427241542558e-05  -3.7061303452748169e-05  -3.6543365324064151e-05  -3.5845849918076490e-05  -3.4965224062124528e-05  -3.3900843061733296e-05  -3.2655560599544845e-05  -3.1236233903697752e-05  -2.9654067611079188e-05  -2.7924746640860635e-05  -2.6068323501574346e-05  -2.4108845388112633e-05  -2.2073728315966015e-05  -1.9992907491162184e-05  -1.7897812818157973e-05  -1.5820233139018529e-05  -1.3791141408288783e-05  -1.1839555842533877e-05  -9.9915086031044069e-06  -8.2691833344759913e-06  -6.6902678534087725e-06  -5.2675518367724538e-06  -4.0087860125351572e-06  -2.9168112586589041e-06  -1.9899274601199914e-06  -1.2223589444112149e-06  -6.0468359421803157e-07  -1.2437391637669875e-07  2.3341943090000020e-07  4.8503506285227242e-07  6.4753767988539077e-07  7.3802040661446372e-07  7.7293273916366001e-07  7.6710583372366621e-07  7.3188130291564259e-07  6.7306353416067815e-07  5.9203962012620065e-07  4.9029249197699169e-07  3.7250011749773867e-07  2.5147452521293298e-07  1.4581121654455023e-07  7.0427938565753489e-08  2.6925371669745312e-08  0.0000000000000000e+00  0.0000000000000000e+00  3.6788193846696924e-07  7.1195161779033411e-07  1.0592705144654030e-06  1.4064003224836883e-06  1.7564703574496231e-06  2.1231025156343400e-06  2.5331034914953419e-06  3.0267286698303958e-06  3.6528282732971387e-06  4.4451488636751724e-06  5.3978708364966994e-06  6.4728365803240937e-06  7.6189113201333607e-06  8.7839589800739349e-06  9.9195066661259291e-06  1.0982387464436709e-05  1.1935553628612228e-05  1.2748318546961894e-05  1.3396140295006854e-05  1.3860040519717164e-05  1.4125766052926176e-05  1.4182825629300856e-05  1.4023544602051164e-05  1.3642272623327636e-05  1.3034855298252476e-05  1.2198443778386210e-05  1.1131670713526321e-05  9.8351719796570998e-06  8.3123873592878165e-06  6.5705360957815761e-06  4.6216363429747679e-06  2.4834229762022699e-06  1.8002057574004193e-07  -2.2577545210068858e-06  -4.7925592982796861e-06  -7.3812101828275644e-06  -9.9758897579691578e-06  -1.2525822549196817e-05  -1.4979463975280911e-05  -1.7286684515689103e-05  -1.9401124009174124e-05  -2.1282989653113525e-05  -2.2901456246573917e-05  -2.4236292744936683e-05  -2.5278942020195909e-05  -2.6032838316914846e-05  -2.6513190688171635e-05  -2.6746317776268804e-05  -2.6768238931020231e-05  -2.6622614075279789e-05  -2.6358268056350761e-05  -2.6026478165257407e-05  -2.5678206488787597e-05  -2.5361462993701880e-05  -2.5118969918039285e-05  -2.4986264000840721e-05  -2.4990338214727261e-05  -2.5148884885786712e-05  -2.5470147080869184e-05  -2.5953336480208168e-05  -2.6589539512759333e-05  -2.7362999666100048e-05  -2.8252639052360769e-05  -2.9233675645264894e-05  -3.0279198598553583e-05  -3.1361577268551706e-05  -3.2453604926201784e-05  -3.3529313005791517e-05  -3.4564535413038337e-05  -3.5537592656656188e-05  -3.6429131663169428e-05  -3.7220792521368734e-05  -3.7894887553441095e-05  -3.8434825300699531e-05  -3.8824650313340138e-05  -3.9048699536306115e-05  -3.9092409090474344e-05  -3.8942360295910349e-05  -3.8586175887372944e-05  -3.8013422115758671e-05  -3.7216565433748330e-05  -3.6191900277578858e-05  -3.4940405293150699e-05  -3.3468452889666537e-05  -3.1788291499692319e-05  -2.9918232502994749e-05  -2.7882497714992950e-05  -2.5710711641094733e-05  -2.3437050779568067e-05  -2.1099091913990822e-05  -1.8736430261647852e-05  -1.6389157044450017e-05  -1.4096293442378547e-05  -1.1894281775098363e-05  -9.8156323717796272e-06  -7.8878068420791943e-06  -6.1323947257169839e-06  -4.5646172215633819e-06  -3.1931676385038871e-06  -2.0204182391733554e-06  -1.0431160197807293e-06  -2.5331820761088239e-07  3.6133163520318067e-07  8.1720949982775218e-07  1.1332354132469603e-06  1.3295854847141369e-06  1.4269269360423694e-06  1.4450686875727679e-06  1.4019423155986127e-06  1.3133374235199134e-06  1.1917250073814612e-06  1.0442447837069466e-06  8.7404604619738724e-07  6.8529670441550506e-07  4.8774678418743832e-07  3.0130030380369034e-07  1.5064740295193167e-07  5.3658277368658003e-08  1.0809525819035749e-08  0.0000000000000000e+00  0.0000000000000000e+00  4.5510808215289356e-07  8.7796557653863181e-07  1.2940896734574530e-06  1.6957074178597535e-06  2.0816274600027497e-06  2.4631115932485637e-06  2.8723413862627661e-06  3.3661612321584706e-06  4.0487400348859101e-06  5.0034934137955903e-06  6.2087877447631845e-06  7.5881681021121897e-06  9.0629479378887076e-06  1.0563914207613133e-05  1.2031122565671234e-05  1.3413108472529497e-05  1.4667047479699734e-05  1.5758461487665387e-05  1.6660575371335449e-05  1.7353309865132991e-05  1.7822000309292603e-05  1.8056000861848385e-05  1.8047356177280895e-05  1.7789712996982539e-05  1.7277615535745513e-05  1.6506279566218592e-05  1.5471880407833169e-05  1.4172323746195802e-05  1.2608405701461194e-05  1.0785220795433683e-05  8.7136414857231911e-06  6.4116739056578740e-06  3.9054962341513815e-06  1.2300075730446856e-06  -1.5712448151249330e-06  -4.4468337873097322e-06  -7.3389498882664358e-06  -1.0185624343766768e-05  -1.2923041302239413e-05  -1.5488415009800618e-05  -1.7823027657896574e-05  -1.9876650375590830e-05  -2.1609530094872934e-05  -2.2996177622998369e-05  -2.4026093200088126e-05  -2.4702284541647800e-05  -2.5042697306876830e-05  -2.5079910303899210e-05  -2.4858929191892776e-05  -2.4434539646359507e-05  -2.3868178736127050e-05  -2.3224513406018978e-05  -2.2567934555821659e-05  -2.1959217607064571e-05  -2.1452578577011195e-05  -2.1093285259392536e-05  -2.0915948567615564e-05  -2.0943590344650042e-05  -2.1187484896586759e-05  -2.1647709247915167e-05  -2.2314308041793808e-05  -2.3168926231637906e-05  -2.4186725643691879e-05  -2.5338402207180894e-05  -2.6592133528940626e-05  -2.7915293069328032e-05  -2.9275804585127998e-05  -3.0643040849741556e-05  -3.1988045380975568e-05  -3.3284936869392085e-05  -3.4511535820026175e-05  -3.5645227781087180e-05  -3.6663136016952643e-05  -3.7543971839148100e-05  -3.8266585731125036e-05  -3.8809197449185122e-05  -3.9151376581551734e-05  -3.9273653974818656e-05  -3.9157169641088237e-05  -3.8785439391681455e-05  -3.8145604362466825e-05  -3.7229700114740581e-05  -3.6035838021330121e-05  -3.4569189831003171e-05  -3.28426598814992