<?xml version="1.0"?>
<VTKFile type="UnstructuredGrid"  version="0.1"  >
<UnstructuredGrid>
<Piece  NumberOfPoints="14641" NumberOfCells="28800">
<Points>
<DataArray  type="Float64"  NumberOfComponents="3"  format="ascii">-0.15 -0.15 0  -0.1308333333333333 -0.15 0  -0.1116666666666667 -0.15 0  -0.0925 -0.15 0  -0.07333333333333333 -0.15 0  -0.05416666666666665 -0.15 0  -0.035 -0.15 0  -0.01583333333333334 -0.15 0  0.003333333333333327 -0.15 0  0.02249999999999999 -0.15 0  0.04166666666666669 -0.15 0  0.06083333333333332 -0.15 0  0.07999999999999999 -0.15 0  0.09916666666666665 -0.15 0  0.1183333333333333 -0.15 0  0.1375 -0.15 0  0.1566666666666666 -0.15 0  0.1758333333333333 -0.15 0  0.195 -0.15 0  0.2141666666666666 -0.15 0  0.2333333333333334 -0.15 0  0.2524999999999999 -0.15 0  0.2716666666666666 -0.15 0  0.2908333333333333 -0.15 0  0.3099999999999999 -0.15 0  0.3291666666666666 -0.15 0  0.3483333333333333 -0.15 0  0.3674999999999999 -0.15 0  0.3866666666666666 -0.15 0  0.4058333333333333 -0.15 0  0.4249999999999999 -0.15 0  0.4441666666666666 -0.15 0  0.4633333333333333 -0.15 0  0.4824999999999999 -0.15 0  0.5016666666666666 -0.15 0  0.5208333333333333 -0.15 0  0.5399999999999999 -0.15 0  0.5591666666666666 -0.15 0  0.5783333333333333 -0.15 0  0.5974999999999999 -0.15 0  0.6166666666666667 -0.15 0  0.6358333333333333 -0.15 0  0.6549999999999999 -0.15 0  0.6741666666666666 -0.15 0  0.6933333333333332 -0.15 0  0.7124999999999999 -0.15 0  0.7316666666666666 -0.15 0  0.7508333333333332 -0.15 0  0.7699999999999999 -0.15 0  0.7891666666666666 -0.15 0  0.8083333333333332 -0.15 0  0.8274999999999999 -0.15 0  0.8466666666666666 -0.15 0  0.8658333333333333 -0.15 0  0.8849999999999999 -0.15 0  0.9041666666666665 -0.15 0  0.9233333333333332 -0.15 0  0.9425 -0.15 0  0.9616666666666666 -0.15 0  0.9808333333333331 -0.15 0  0.9999999999999999 -0.15 0  1.019166666666667 -0.15 0  1.038333333333333 -0.15 0  1.0575 -0.15 0  1.076666666666667 -0.15 0  1.095833333333333 -0.15 0  1.115 -0.15 0  1.134166666666667 -0.15 0  1.153333333333333 -0.15 0  1.1725 -0.15 0  1.191666666666667 -0.15 0  1.210833333333333 -0.15 0  1.23 -0.15 0  1.249166666666667 -0.15 0  1.268333333333333 -0.15 0  1.2875 -0.15 0  1.306666666666667 -0.15 0  1.325833333333333 -0.15 0  1.345 -0.15 0  1.364166666666667 -0.15 0  1.383333333333334 -0.15 0  1.4025 -0.15 0  1.421666666666667 -0.15 0  1.440833333333333 -0.15 0  1.46 -0.15 0  1.479166666666667 -0.15 0  1.498333333333333 -0.15 0  1.5175 -0.15 0  1.536666666666667 -0.15 0  1.555833333333333 -0.15 0  1.575 -0.15 0  1.594166666666667 -0.15 0  1.613333333333333 -0.15 0  1.6325 -0.15 0  1.651666666666667 -0.15 0  1.670833333333333 -0.15 0  1.69 -0.15 0  1.709166666666667 -0.15 0  1.728333333333333 -0.15 0  1.7475 -0.15 0  1.766666666666667 -0.15 0  1.785833333333333 -0.15 0  1.805 -0.15 0  1.824166666666666 -0.15 0  1.843333333333333 -0.15 0  1.8625 -0.15 0  1.881666666666667 -0.15 0  1.900833333333333 -0.15 0  1.92 -0.15 0  1.939166666666666 -0.15 0  1.958333333333333 -0.15 0  1.9775 -0.15 0  1.996666666666667 -0.15 0  2.015833333333333 -0.15 0  2.035 -0.15 0  2.054166666666667 -0.15 0  2.073333333333333 -0.15 0  2.0925 -0.15 0  2.111666666666666 -0.15 0  2.130833333333333 -0.15 0  2.15 -0.15 0  -0.15 -0.1308333333333333 0  -0.1308333333333333 -0.1308333333333333 0  -0.1116666666666667 -0.1308333333333333 0  -0.0925 -0.1308333333333333 0  -0.07333333333333333 -0.1308333333333333 0  -0.05416666666666665 -0.1308333333333333 0  -0.035 -0.1308333333333333 0  -0.01583333333333334 -0.1308333333333333 0  0.003333333333333327 -0.1308333333333333 0  0.02249999999999999 -0.1308333333333333 0  0.04166666666666669 -0.1308333333333333 0  0.06083333333333332 -0.1308333333333333 0  0.07999999999999999 -0.1308333333333333 0  0.09916666666666665 -0.1308333333333333 0  0.1183333333333333 -0.1308333333333333 0  0.1375 -0.1308333333333333 0  0.1566666666666666 -0.1308333333333333 0  0.1758333333333333 -0.1308333333333333 0  0.195 -0.1308333333333333 0  0.2141666666666666 -0.1308333333333333 0  0.2333333333333334 -0.1308333333333333 0  0.2524999999999999 -0.1308333333333333 0  0.2716666666666666 -0.1308333333333333 0  0.2908333333333333 -0.1308333333333333 0  0.3099999999999999 -0.1308333333333333 0  0.3291666666666666 -0.1308333333333333 0  0.3483333333333333 -0.1308333333333333 0  0.3674999999999999 -0.1308333333333333 0  0.3866666666666666 -0.1308333333333333 0  0.4058333333333333 -0.1308333333333333 0  0.4249999999999999 -0.1308333333333333 0  0.4441666666666666 -0.1308333333333333 0  0.4633333333333333 -0.1308333333333333 0  0.4824999999999999 -0.1308333333333333 0  0.5016666666666666 -0.1308333333333333 0  0.5208333333333333 -0.1308333333333333 0  0.5399999999999999 -0.1308333333333333 0  0.5591666666666666 -0.1308333333333333 0  0.5783333333333333 -0.1308333333333333 0  0.5974999999999999 -0.1308333333333333 0  0.6166666666666667 -0.1308333333333333 0  0.6358333333333333 -0.1308333333333333 0  0.6549999999999999 -0.1308333333333333 0  0.6741666666666666 -0.1308333333333333 0  0.6933333333333332 -0.1308333333333333 0  0.7124999999999999 -0.1308333333333333 0  0.7316666666666666 -0.1308333333333333 0  0.7508333333333332 -0.1308333333333333 0  0.7699999999999999 -0.1308333333333333 0  0.7891666666666666 -0.1308333333333333 0  0.8083333333333332 -0.1308333333333333 0  0.8274999999999999 -0.1308333333333333 0  0.8466666666666666 -0.1308333333333333 0  0.8658333333333333 -0.1308333333333333 0  0.8849999999999999 -0.1308333333333333 0  0.9041666666666665 -0.1308333333333333 0  0.9233333333333332 -0.1308333333333333 0  0.9425 -0.1308333333333333 0  0.9616666666666666 -0.1308333333333333 0  0.9808333333333331 -0.1308333333333333 0  0.9999999999999999 -0.1308333333333333 0  1.019166666666667 -0.1308333333333333 0  1.038333333333333 -0.1308333333333333 0  1.0575 -0.1308333333333333 0  1.076666666666667 -0.1308333333333333 0  1.095833333333333 -0.1308333333333333 0  1.115 -0.1308333333333333 0  1.134166666666667 -0.1308333333333333 0  1.153333333333333 -0.1308333333333333 0  1.1725 -0.1308333333333333 0  1.191666666666667 -0.1308333333333333 0  1.210833333333333 -0.1308333333333333 0  1.23 -0.1308333333333333 0  1.249166666666667 -0.1308333333333333 0  1.268333333333333 -0.1308333333333333 0  1.2875 -0.1308333333333333 0  1.306666666666667 -0.1308333333333333 0  1.325833333333333 -0.1308333333333333 0  1.345 -0.1308333333333333 0  1.364166666666667 -0.1308333333333333 0  1.383333333333334 -0.1308333333333333 0  1.4025 -0.1308333333333333 0  1.421666666666667 -0.1308333333333333 0  1.440833333333333 -0.1308333333333333 0  1.46 -0.1308333333333333 0  1.479166666666667 -0.1308333333333333 0  1.498333333333333 -0.1308333333333333 0  1.5175 -0.1308333333333333 0  1.536666666666667 -0.1308333333333333 0  1.555833333333333 -0.1308333333333333 0  1.575 -0.1308333333333333 0  1.594166666666667 -0.1308333333333333 0  1.613333333333333 -0.1308333333333333 0  1.6325 -0.1308333333333333 0  1.651666666666667 -0.1308333333333333 0  1.670833333333333 -0.1308333333333333 0  1.69 -0.1308333333333333 0  1.709166666666667 -0.1308333333333333 0  1.728333333333333 -0.1308333333333333 0  1.7475 -0.1308333333333333 0  1.766666666666667 -0.1308333333333333 0  1.785833333333333 -0.1308333333333333 0  1.805 -0.1308333333333333 0  1.824166666666666 -0.1308333333333333 0  1.843333333333333 -0.1308333333333333 0  1.8625 -0.1308333333333333 0  1.881666666666667 -0.1308333333333333 0  1.900833333333333 -0.1308333333333333 0  1.92 -0.1308333333333333 0  1.939166666666666 -0.1308333333333333 0  1.958333333333333 -0.1308333333333333 0  1.9775 -0.1308333333333333 0  1.996666666666667 -0.1308333333333333 0  2.015833333333333 -0.1308333333333333 0  2.035 -0.1308333333333333 0  2.054166666666667 -0.1308333333333333 0  2.073333333333333 -0.1308333333333333 0  2.0925 -0.1308333333333333 0  2.111666666666666 -0.1308333333333333 0  2.130833333333333 -0.1308333333333333 0  2.15 -0.1308333333333333 0  -0.15 -0.1116666666666667 0  -0.1308333333333333 -0.1116666666666667 0  -0.1116666666666667 -0.1116666666666667 0  -0.0925 -0.1116666666666667 0  -0.07333333333333333 -0.1116666666666667 0  -0.05416666666666665 -0.1116666666666667 0  -0.035 -0.1116666666666667 0  -0.01583333333333334 -0.1116666666666667 0  0.003333333333333327 -0.1116666666666667 0  0.02249999999999999 -0.1116666666666667 0  0.04166666666666669 -0.1116666666666667 0  0.06083333333333332 -0.1116666666666667 0  0.07999999999999999 -0.1116666666666667 0  0.09916666666666665 -0.1116666666666667 0  0.1183333333333333 -0.1116666666666667 0  0.1375 -0.1116666666666667 0  0.1566666666666666 -0.1116666666666667 0  0.1758333333333333 -0.1116666666666667 0  0.195 -0.1116666666666667 0  0.2141666666666666 -0.1116666666666667 0  0.2333333333333334 -0.1116666666666667 0  0.2524999999999999 -0.1116666666666667 0  0.2716666666666666 -0.1116666666666667 0  0.2908333333333333 -0.1116666666666667 0  0.3099999999999999 -0.1116666666666667 0  0.3291666666666666 -0.1116666666666667 0  0.3483333333333333 -0.1116666666666667 0  0.3674999999999999 -0.1116666666666667 0  0.3866666666666666 -0.1116666666666667 0  0.4058333333333333 -0.1116666666666667 0  0.4249999999999999 -0.1116666666666667 0  0.4441666666666666 -0.1116666666666667 0  0.4633333333333333 -0.1116666666666667 0  0.4824999999999999 -0.1116666666666667 0  0.5016666666666666 -0.1116666666666667 0  0.5208333333333333 -0.1116666666666667 0  0.5399999999999999 -0.1116666666666667 0  0.5591666666666666 -0.1116666666666667 0  0.5783333333333333 -0.1116666666666667 0  0.5974999999999999 -0.1116666666666667 0  0.6166666666666667 -0.1116666666666667 0  0.6358333333333333 -0.1116666666666667 0  0.6549999999999999 -0.1116666666666667 0  0.6741666666666666 -0.1116666666666667 0  0.6933333333333332 -0.1116666666666667 0  0.7124999999999999 -0.1116666666666667 0  0.7316666666666666 -0.1116666666666667 0  0.7508333333333332 -0.1116666666666667 0  0.7699999999999999 -0.1116666666666667 0  0.
[...]
<PointData  Scalars="f_29724"> 
<DataArray  type="Float64"  Name="f_29724"  format="ascii">0.0000000000000000e+00  0.0000000000000000e+00  0.0000000000000000e+00  0.0000000000000000e+00  0.0000000000000000e+00  0.0000000000000000e+00  0.0000000000000000e+00  0.0000000000000000e+00  0.0000000000000000e+00  0.0000000000000000e+00  0.0000000000000000e+00  0.0000000000000000e+00  0.0000000000000000e+00  0.0000000000000000e+00  0.0000000000000000e+00  0.0000000000000000e+00  0.0000000000000000e+00  0.0000000000000000e+00  0.0000000000000000e+00  0.0000000000000000e+00  0.0000000000000000e+00  0.0000000000000000e+00  0.0000000000000000e+00  0.0000000000000000e+00  0.0000000000000000e+00  0.0000000000000000e+00  0.0000000000000000e+00  0.0000000000000000e+00  0.0000000000000000e+00  0.0000000000000000e+00  0.0000000000000000e+00  0.0000000000000000e+00  0.0000000000000000e+00  0.0000000000000000e+00  0.0000000000000000e+00  0.0000000000000000e+00  0.0000000000000000e+00  0.0000000000000000e+00  0.0000000000000000e+00  0.0000000000000000e+00  0.0000000000000000e+00  0.0000000000000000e+00  0.0000000000000000e+00  0.0000000000000000e+00  0.0000000000000000e+00  0.0000000000000000e+00  0.0000000000000000e+00  0.0000000000000000e+00  0.0000000000000000e+00  0.0000000000000000e+00  0.0000000000000000e+00  0.0000000000000000e+00  0.0000000000000000e+00  0.0000000000000000e+00  0.0000000000000000e+00  0.0000000000000000e+00  0.0000000000000000e+00  0.0000000000000000e+00  0.0000000000000000e+00  0.0000000000000000e+00  0.0000000000000000e+00  0.0000000000000000e+00  0.0000000000000000e+00  0.0000000000000000e+00  0.0000000000000000e+00  0.0000000000000000e+00  0.0000000000000000e+00  0.0000000000000000e+00  0.0000000000000000e+00  0.0000000000000000e+00  0.0000000000000000e+00  0.0000000000000000e+00  0.0000000000000000e+00  0.0000000000000000e+00  0.0000000000000000e+00  0.0000000000000000e+00  0.0000000000000000e+00  0.0000000000000000e+00  0.0000000000000000e+00  0.0000000000000000e+00  0.0000000000000000e+00  0.0000000000000000e+00  0.0000000000000000e+00  0.0000000000000000e+00  0.0000000000000000e+00  0.0000000000000000e+00  0.0000000000000000e+00  0.0000000000000000e+00  0.0000000000000000e+00  0.0000000000000000e+00  0.0000000000000000e+00  0.0000000000000000e+00  0.0000000000000000e+00  0.0000000000000000e+00  0.0000000000000000e+00  0.0000000000000000e+00  0.0000000000000000e+00  0.0000000000000000e+00  0.0000000000000000e+00  0.0000000000000000e+00  0.0000000000000000e+00  0.0000000000000000e+00  0.0000000000000000e+00  0.0000000000000000e+00  0.0000000000000000e+00  0.0000000000000000e+00  0.0000000000000000e+00  0.0000000000000000e+00  0.0000000000000000e+00  0.0000000000000000e+00  0.0000000000000000e+00  0.0000000000000000e+00  0.0000000000000000e+00  0.0000000000000000e+00  0.0000000000000000e+00  0.0000000000000000e+00  0.0000000000000000e+00  0.0000000000000000e+00  0.0000000000000000e+00  0.0000000000000000e+00  0.0000000000000000e+00  0.0000000000000000e+00  -1.9701914356065704e-03  -3.8443786833457652e-03  -5.6668267224036359e-03  -7.3748832154354573e-03  -8.9388100816663284e-03  -1.0379045080832846e-02  -1.1750409306985527e-02  -1.3096538976964889e-02  -1.4430004213479987e-02  -1.5754100777050223e-02  -1.7035123610964136e-02  -1.8203385090653439e-02  -1.9167972933387220e-02  -1.9838268875695751e-02  -2.0144382479851796e-02  -2.0049827642269102e-02  -1.9554601645509571e-02  -1.8690629288964443e-02  -1.7512830764229631e-02  -1.6088655167890969e-02  -1.4488008676510931e-02  -1.2774736693412534e-02  -1.1000309903239559e-02  -9.2000327430555411e-03  -7.3918453928037411e-03  -5.5775753195190323e-03  -3.7462981583940482e-03  -1.8792981512646655e-03  4.4009202138471995e-05  2.0399011837570185e-03  4.1146348961563321e-03  6.2598563162601217e-03  8.4496748500211775e-03  1.0639783467592406e-02  1.2768802673963334e-02  1.4761793994610913e-02  1.6535645912631465e-02  1.8005834398656849e-02  1.9093950204341084e-02  1.9735350229639841e-02  1.9886294445249222e-02  1.9529972660870448e-02  1.8680878152812431e-02  1.7387025792777167e-02  1.5729631413214783e-02  1.3820126021574309e-02  1.1794681119329390e-02  9.8066743175258906e-03  8.0176917675616414e-03  6.5877296440517933e-03  5.6652597901676906e-03  5.3778193782686324e-03  5.8237658591541765e-03  7.0657716964100600e-03  9.1265083187370179e-03  1.1986801176613790e-02  1.5586350004667767e-02  1.9826919673329901e-02  2.4577732906593444e-02  2.9682649201553737e-02  3.4968604224333580e-02  4.0254717368027167e-02  4.5361455386891431e-02  5.0119267633063500e-02  5.4376181837712818e-02  5.8003963574287984e-02  6.0902582773800548e-02  6.3002866397547347e-02  6.4267319508848619e-02  6.4689184252464227e-02  6.4289925528548592e-02  6.3115477352131744e-02  6.1231687896324397e-02  5.8719417110521442e-02  5.5669671790431009e-02  5.2179054936230679e-02  4.8345721461272945e-02  4.4265984609848104e-02  4.0031675860658401e-02  3.5728307175803387e-02  3.1434002677064143e-02  2.7219064685150368e-02  2.3145970967449598e-02  1.9269593711863989e-02  1.5637461619656096e-02  1.2289928619965158e-02  9.2601598169544160e-03  6.5738979291146069e-03  4.2490291594829942e-03  2.2950201697786174e-03  7.1234068037792880e-04  -5.0798676719912962e-04  -1.3845610827700923e-03  -1.9453660344950774e-03  -2.2270217838532723e-03  -2.2734736529879665e-03  -2.1341271990210180e-03  -1.8615002921132137e-03  -1.5085190527998234e-03  -1.1256338912226981e-03  -7.5797796932176517e-04  -4.4282930811416314e-04  -2.0765421321042527e-04  -6.8993914526705499e-05  -3.2406288849757929e-05  -9.3571372119396687e-05  -2.4046795842445814e-04  -4.5619412182445400e-04  -7.2161785318256965e-04  -1.0169007395571888e-03  -1.3214022813017136e-03  -1.6125347446546766e-03  -1.8646667949572312e-03  -2.0457500841234919e-03  -2.1148503201862683e-03  -2.0315419920430870e-03  -1.7708528466407756e-03  -1.3316578672950008e-03  -7.3255000999007127e-04  0.0000000000000000e+00  0.0000000000000000e+00  -3.9450101272403603e-03  -7.7200569609033780e-03  -1.1378530071015336e-02  -1.4839259771071060e-02  -1.8055385917806047e-02  -2.1052758960774146e-02  -2.3915163304618913e-02  -2.6713611118858026e-02  -2.9466183472817209e-02  -3.2165595325578854e-02  -3.4737577800895376e-02  -3.7043774028134510e-02  -3.8916616700995020e-02  -4.0202650177686809e-02  -4.0795534528982498e-02  -4.0651577449108314e-02  -3.9789647651277217e-02  -3.8280527102129321e-02  -3.6230574596496187e-02  -3.3763494906438166e-02  -3.1002963846715838e-02  -2.8058009154402867e-02  -2.5012368753015490e-02  -2.1918485687100184e-02  -1.8796304282612433e-02  -1.5636583031010915e-02  -1.2408040859327662e-02  -9.0673252495039984e-03  -5.5705577817193770e-03  -1.8850957987770998e-03  1.9998409189994279e-03  6.0648943433324193e-03  1.0255613731533064e-02  1.4481462698446086e-02  1.8619045427433350e-02  2.2519405375082895e-02  2.6018832994962340e-02  2.8952197509106214e-02  3.1167514948458881e-02  3.2540464279608980e-02  3.2987755871008752e-02  3.2478330646882062e-02  3.1041313922506135e-02  2.8769758301510524e-02  2.5819553937120498e-02  2.2403332781858531e-02  1.8779746940947951e-02  1.5239034170544903e-02  1.2086017253020949e-02  9.6216918657377783e-03  8.1245940222349662e-03  7.8331993855834357e-03  8.9305730320179931e-03  1.1532329574541641e-02  1.5678710495762582e-02  2.1331273415748662e-02  2.8374347519822096e-02  3.6621068840256329e-02  4.5823494533223243e-02  5.5686029533795298e-02  6.5881200098583656e-02  7.6066688420755882e-02  8.5902506044598204e-02  9.5067230703457684e-02  1.0327235472823887e-01  1.1027398225237117e-01  1.1588135596277972e-01  1.1996197313855322e-01  1.2244330451655439e-01  1.2331128068000675e-01  1.2260583347061137e-01  1.2041403990195637e-01  1.1686165961336259e-01  1.1210382885323592e-01  1.0631558477190999e-01  9.9682903467417219e-02  9.2394765906036527e-02  8.4636483977060722e-02  7.6584460434156953e-02  6.8402539710437693e-02  6.0239884083693934e-02  5.2230084810562086e-02  4.4491146774256092e-02  3.7125990445890343e-02  3.0223138280314379e-02  2.3857298878213834e-02  1.8089637818163008e-02  1.2967622955347428e-02  8.5244419567024263e-03  4.7780970139945480e-03  1.7303725888946379e-03  -6.3406492537633322e-04  -2.3481499360100471e-03  -3.4622104250880397e-03  -4.0428510473889583e-03  -4.1707934986480915e-03  -3.9376525934975114e-03  -3.4417500136532751e-03  -2.7831873099021919e-03  -2.0584994977296094e-03  -1.3552869352145341e-03  -7.4729092146406332e-04  -2.9042983182948033e-04  -2.0292050643347034e-05  4.8538751691260332e-05  -7.8851214368663020e-05  -3.8094588924744710e-04  -8.2442656952391898e-04  -1.3691057621528111e-03  -1.9715993528491003e-03  -2.5864475092082909e-03  -3.1650482423465224e-03  -3.6546118075233875e-03  -3.9926440129748816e-03  -4.1052088406463745e-03  -3.9243342394242962e-03  -3.4111476762358275e-03  -2.5653759394227552e-03  -1.4172575558299757e-03  0.0000000000000000e+00  0.0000000000000000e+00  -6.0259257840053317e-03  -1.1794696277478176e-02  -1.7376267217238332e-02  -2.2697111230914776e-02  -2.7709817227047462e-02  -3.2441253891838190e-02  -3.6994396776798451e-02  -4.1468829334073934e-02  -4.5893678403156377e-02  -5.0247302514742610e-02  -5.4401850401270130e-02  -5.8140611879111799e-02  -6.1224037570097568e-02  -6.3453260666686689e-02  -6.4706699022247668e-02  -6.4950637464370770e-02  -6.4232449046401782e-02  -6.2663510174661485e-02  -6.0396681443392719e-02  -5.7602086063493839e-02  -5.4444200793291861e-02  -5.1062633639311891e-02  -4.7558298022784828e-02  -4.3985995156802911e-02  -4.0353709124182000e-02  -3.6628240383576177e-02  -3.2746198920272265e-02  -2.8628890599719365e-02  -2.4199293709834264e-02  -1.9399163339787723e-02  -1.4204330798191132e-02  -8.6364768940375633e-03  -2.7700284070799122e-03  3.2666833213653018e-03  9.2963068175698146e-03  1.5103142567772503e-02  2.0448833479619524e-02  2.5091758378703893e-02  2.8808124688437770e-02  3.1412605519399228e-02  3.2777299737009498e-02  3.2847935344972587e-02  3.1655296982613726e-02  2.9320332333074683e-02  2.6052524104749251e-02  2.2141255528735929e-02  1.7940628196243480e-02  1.3849276208755416e-02  1.0286727379363723e-02  7.6677222747838884e-03  6.3761509390595737e-03  6.7404325608319167e-03  9.0120708925404171e-03  1.3348855433547024e-02  1.9803812493769057e-02  2.8320577343968333e-02  3.8735392531649052e-02  5.0785472612944645e-02  6.4123045000485407e-02  7.8334011948483662e-02  9.2959905278622038e-02  1.0752163872600559e-01  1.2154350980264171e-01  1.3457596259097582e-01  1.4621578313397879e-01  1.5612263957707595e-01  1.6403118028857105e-01  1.6975826895384988e-01  1.7320538463918164e-01  1.7435659604483175e-01  1.7327259054264238e-01  1.7008134761711519e-01  1.6496635796616702e-01  1.5815327952008212e-01  1.4989595367271341e-01  1.4046307526823709e-01  1.3012655666671846e-01  1.1915181122784410e-01  1.0779016659945628e-01  9.6273659038384085e-02  8.4811979866155560e-02  7.3591180987246860e-02  6.2773738784700273e-02  5.2499515497833868e-02  4.2887125054444482e-02  3.4035248744240743e-02  2.6023545711588839e-02  1.8912943793465684e-02  1.2745256935409528e-02  7.5422360079279854e-03  3.3043007245842542e-03  9.3042888204431656e-06  -2.3882634507689836e-03  -3.9572314741386141e-03  -4.7885196047167643e-03  -4.9924978165859744e-03  -4.6948573800016623e-03  -4.0310973146092249e-03  -3.1399136764652755e-03  -2.1559398508483518e-03  -1.2023835482173444e-03  -3.8414873213248827e-04  2.1789140464233050e-04  5.5075851614076830e-04  5.9085872851875453e-04  3.4291476842915076e-04  -1.6355830459472299e-04  -8.7977090501097609e-04  -1.7441725416244003e-03  -2.6882430961130532e-03  -3.6395486538615116e-03  -4.5218807968991749e-03  -5.2555773150289257e-03  -5.7513867203946864e-03  -5.9100278367618993e-03  -5.6458985143965539e-03  -4.9121585723923469e-03  -3.7059397247185019e-03  -2.0564582635547459e-03  0.0000000000000000e+00  0.0000000000000000e+00  -8.1374913657208635e-03  -1.5958388401342168e-02  -2.3527878947398342e-02  -3.0793765022949914e-02  -3.7710858503995436e-02  -4.4300113108585532e-02  -5.0679858336653553e-02  -5.6993348569604890e-02  -6.3306176517988200e-02  -6.9585703267038959e-02  -7.5627913433310157e-02  -8.1110969736111690e-02  -8.5712499279696222e-02  -8.9191389401274926e-02  -9.1419444390354737e-02  -9.2382731879630448e-02  -9.2166708147006657e-02  -9.0931721544211933e-02  -8.8883409697251572e-02  -8.6241801316566419e-02  -8.3212465063077917e-02  -7.9962540285848510e-02  -7.6603804427914160e-02  -7.3184104376512460e-02  -6.9687569413078271e-02  -6.6043114161274896e-02  -6.2139925553975552e-02  -5.7847975693873580e-02  -5.3041157126906935e-02  -4.7620436304989626e-02  -4.1534472713753774e-02  -3.4795441580151909e-02  -2.7488303803616762e-02  -1.9772426738632734e-02  -1.1875201191348481e-02  -4.0780570124254803e-03  3.3040740100885521e-03  9.9483702780810146e-03  1.5552250553100430e-02  1.9860088313064073e-02  2.2687766631583950e-02  2.3944876913034485e-02  2.3650227663403398e-02  2.1938175356870343e-02  1.9056728241858410e-02  1.5356683731475820e-02  1.1272246229492772e-02  7.2956905714718981e-03  3.9475943182051415e-03  1.7441874237560870e-03  1.1641263641277572e-03  2.6171242954566784e-03  6.4166464610920168e-03  1.2758523670071222e-02  2.1706870830950402e-02  3.3188148982061391e-02  4.6993623792096262e-02  6.2789891257444483e-02  8.0136600078115766e-02  9.8510042570135667e-02  1.1733094121169979e-01  1.3599454560763771e-01  1.5390108752618645e-01  1.7048471410693544e-01  1.8523921515670982e-01  1.9773915792580454e-01  2.0765539671460650e-01  2.1476426616395725e-01  2.1895020365796219e-01  2.2020255206570941e-01  2.1860816305475958e-01  2.1434047899217390e-01  2.0764463508904563e-01  1.9881948261954097e-01  1.8819880740301514e-01  1.7613335336963626e-01  1.6297501453014093e-01  1.4906419381535052e-01  1.3472056274088107e-01  1.2023670353017259e-01  1.0587417318851124e-01  9.1861940858170038e-02  7.8396841085424690e-02  6.5645399896836001e-02  5.3746318647411723e-02  4.2812954118787772e-02  3.2935265803316328e-02  2.4180885774283158e-02  1.6595181670997997e-02  1.0200404203180758e-02  4.9942098318749451e-03  9.4800309395191797e-04  -1.9943655312008425e-03  -3.9169934402810483e-03  -4.9309213938602686e-03  -5.1713765498856831e-03  -4.7931035229131494e-03  -3.9638569774973018e-03  -2.8563782342174993e-03  -1.6394238546321317e-03  -4.6858596790860622e-04  5.2240559082111261e-04  1.2292382363467830e-03  1.5824178148840275e-03  1.5497175685832820e-03  1.1355760300249974e-03  3.7753953987250052e-04  -6.5987746525631753e-04  -1.8927983441174353e-03  -3.2253922491085746e-03  -4.5548051997205043e-03  -5.7728893333497703e-03  -6.7695862160196754e-03  -7.4289642970955926e-03  -7.6321333608510367e-03  -7.2853580351813036e-03  -6.3413355415017289e-03  -4.7955603547596651e-03  -2.6681982184445924e-03  0.0000000000000000e+00  0.0000000000000000e+00  -1.0191166284600024e-02  -2.0053719455715879e-02  -2.9623656281682960e-02  -3.8867629442950545e-02  -4.7730862575726035e-02  -5.6214168876701512e-02  -6.4450404937360567e-02  -7.2660805433326522e-02  -8.1021140980539419e-02  -8.9519645364632430e-02  -9.7826966033336113e-02  -1.0545022000616350e-01  -1.1194762958972794e-01  -1.1702038695395527e-01  -1.2052741395842896e-01  -1.2247699010099092e-01  -1.2300241957348437e-01  -1.2232759186886524e-01  -1.2072774803153850e-01  -1.1848947301958695e-01  -1.1587378043492309e-01  -1.1308571608206569e-01  -1.1025314908761952e-01  -1.0741643077917323e-01  -1.0452945753644476e-01  -1.0147148947352558e-01  -9.8068025609387405e-02  -9.4118192211783136e-02  -8.9425517757450390e-02  -8.3828726441135329e-02  -7.7229251123561743e-02  -6.9612522974735372e-02  -6.1060769274459442e-02  -5.1755913822040672e-02  -4.1972114329747096e-02  -3.2058463711235163e-02  -2.2413318192142956e-02  -1.3452020628120259e-02  -5.5698338997984403e-03  8.9090089385884808e-04  5.6710760364864360e-03  8.6259443780276196e-03  9.7462109216616966e-03  9.1654927072525039e-03  7.1587112918282125e-03  4.1287815699661973e-03  5.8324036680980351e-04  -2.8956974059777957e-03  -5.6874267674446796e-03  -7.1732737945488859e-03  -6.7775156483580179e-03  -4.0061060885595370e-03  1.5195846951177247e-03  1.0036301058896392e-02  2.1621416891389626e-02  3.6185460784892404e-02  5.3474963944673957e-02  7.3085230027893244e-02  9.4481956285153601e-02  1.1703008075136456e-01  1.4002780015472188e-01  1.6274343110852457e-01  1.8445271943252706e-01  2.0447429536898284e-01  2.2220119591750834e-01  2.3712675950042150e-01  2.4886369198477692e-01  2.5715552768405259e-01  2.6187920774348566e-01  2.6303790267900284e-01  2.6075121838096560e-01  2.5524669230987451e-01  2.4684163011233815e-01  2.3591630006625358e-01  2.2289095556597013e-01  2.0820415880593379e-01  1.9228905960172080e-01  1.7555810384113579e-01  1.5839547387887642e-01  1.4114925009733925e-01  1.2412611202896498e-01  1.0758982116878049e-01  9.1762622617803075e-02  7.6828541785072979e-02  6.2937555872019962e-02  5.0209733224655925e-02  3.8738608812036071e-02  2.8593295737568719e-02  1.9819113655232482e-02  1.2436811645188636e-02  6.4407334152527971e-03  1.7964856145431273e-03  -1.5611918089441018e-03  -3.7296089853622013e-03  -4.8376826668540766e-03  -5.0433512837862121e-03  -4.5285774664203058e-03  -3.4919602425407328e-03  -2.1392930825467806e-03  -6.7273262435522951e-04  7.2036227567782128e-04  1.8779004344674707e-03  2.6727014276653333e-03  3.0198691032722064e-03  2.8800974937187238e-03  2.2593451172213414e-03  1.2052161666416365e-03  -2.0066271671033940e-04  -1.8516080198553060e-03  -3.6239897663351258e-03  -5.3823541492709296e-03  -6.9800213966751679e-03  -8.2673282952373441e-03  -9.0978450471610080e-03  -9.3386907549376230e-03  -8.8984883374581616e-03  -7.7383170760176381e-03  -5.8560824221485317e-03  -3.2603259165767989e-03  0.0000000000000000e+00  0.0000000000000000e+00  -1.2136653184761700e-02  -2.3976472157714260e-02  -3.5509019358996079e-02  -4.6708777448084382e-02  -5.7487767003823909e-02  -6.7794150798835606e-02  -7.7756824756150145e-02  -8.7714235157541884e-02  -9.8155425398402801e-02  -1.0923348335623351e-01  -1.2034325434411187e-01  -1.3065098734968444e-01  -1.3952851375873387e-01  -1.4659448603193051e-01  -1.5167617910627396e-01  -1.5480855072716582e-01  -1.5618860580093993e-01  -1.5612791038935278e-01  -1.5500010598647149e-01  -1.5318833003162322e-01  -1.5103698954297115e-01  -1.4881215813707060e-01  -1.4667392965811687e-01  -1.4466292506900963e-01  -1.4270169989869302e-01  -1.4061020305012731e-01  -1.3813312861994195e-01  -1.3497590884960714e-01  -1.3084526835593657e-01  -1.2549004299994648e-01  -1.1873803871227603e-01  -1.1052501083825997e-01  -1.0091281706839444e-01  -9.0094938542229067e-02  -7.8388658661692728e-02  -6.6214510226740048e-02  -5.4064884098556157e-02  -4.2465094658550556e-02  -3.1922303347051942e-02  -2.2885744006192379e-02  -1.5717123917384113e-02  -1.0638287921893835e-02  -7.7057392396428781e-03  -6.7999839373921872e-03  -7.6272126013229996e-03  -9.7383032546537740e-03  -1.2552520414028601e-02  -1.5391911221373580e-02  -1.7526244519888046e-02  -1.8222325034290165e-02  -1.6794131144916173e-02  -1.2650246418362897e-02  -5.3353375720958524e-03  5.4372061589691503e-03  1.9763609912943729e-02  3.7540260414858979e-02  5.8466870555294488e-02  8.2061787606190983e-02  1.0768811323208996e-01  1.3458867678944897e-01  1.6192734318316454e-01  1.8883373076420690e-01  2.1444843046029011e-01  2.3796595990226965e-01  2.5867283880991399e-01  2.7597869729465951e-01  2.8943908592902229e-01  2.9876963950033814e-01  3.0385349600790057e-01  3.0471914751246115e-01  3.0151906003966478e-01  2.9454677825730680e-01  2.8421474395919333e-01  2.7099501605122289e-01  2.5540144038616791e-01  2.3797940680988133e-01  2.1924669057899229e-01  1.9968026752998835e-01  1.7972975610128589e-01  1.5979603020527616e-01  1.4022549584282870e-01  1.2130939367882437e-01  1.0328706808084431e-01  8.6351547058955883e-02  7.0656091129879445e-02  5.6320545745077000e-02  4.3436541282154850e-02  3.2070850465066011e-02  2.2266